 <VTKFile type="UnstructuredGrid" version="0.1" byte_order="BigEndian">
  <UnstructuredGrid>
   <Piece NumberOfPoints="       14163 " NumberOfCells="        4721 ">
    <PointData Scalars="rho">
     <DataArray type="Float32" Name="Res_Rho" Format="ascii">
       1.33306691101504069E-015  1.11102230609000938E-015  1.05551115485875155E-015
       1.40245585005411297E-015  1.11102230609000938E-015  1.11102230609000938E-015
       1.11102230609000938E-015  1.08326673047438047E-015  1.27755575978378286E-015
       1.08326673047438047E-015  1.00000000362749373E-015  1.06938894266656601E-015
       1.27755575978378286E-015  1.05551115485875155E-015  1.02775557924312264E-015
       1.24980018416815395E-015  1.10581813566207896E-015  1.02775557924312264E-015
       1.11102230609000938E-015  1.02775557924312264E-015  1.04163336705093710E-015
       1.16653345732126721E-015  1.02775557924312264E-015  1.04683753747886752E-015
       1.13877788170563829E-015  1.08326673047438047E-015  1.13183898780173106E-015
       1.13877788170563829E-015  1.05551115485875155E-015  1.00000000362749373E-015
       1.06938894266656601E-015  1.05551115485875155E-015  1.11102230609000938E-015
       1.11102230609000938E-015  1.18041124512908166E-015  1.05551115485875155E-015
       1.06938894266656601E-015  1.00000000362749373E-015  1.01387779143530818E-015
       1.02775557924312264E-015  1.00000000362749373E-015  1.01040834448335457E-015
       1.09714451828219492E-015  1.02775557924312264E-015  1.02081668533921541E-015
       1.22204460855252503E-015  1.00000000362749373E-015  1.00000000362749373E-015
       1.06938894266656601E-015  1.06938894266656601E-015  1.13877788170563829E-015
       1.11102230609000938E-015  1.13877788170563829E-015  1.27755575978378286E-015
       1.36082248663066960E-015  1.27755575978378286E-015  1.55511151594007200E-015
       1.22204460855252503E-015  1.18041124512908166E-015  1.05551115485875155E-015
       1.13877788170563829E-015  1.16653345732126721E-015  1.02775557924312264E-015
       1.02775557924312264E-015  1.05551115485875155E-015  1.03295974967105306E-015
       1.22204460855252503E-015  1.02775557924312264E-015  1.08326673047438047E-015
       1.08326673047438047E-015  1.16653345732126721E-015  1.19428903293689612E-015
       1.02775557924312264E-015  1.09714451828219492E-015  1.16653345732126721E-015
       1.16653345732126721E-015  1.05551115485875155E-015  1.11102230609000938E-015
       1.16653345732126721E-015  1.02775557924312264E-015  1.05551115485875155E-015
       1.00000000362749373E-015  1.07632783657047324E-015  1.11102230609000938E-015
       1.24980018416815395E-015  1.11102230609000938E-015  1.05551115485875155E-015
       1.08326673047438047E-015  1.06418477223863559E-015  1.16653345732126721E-015
       1.02775557924312264E-015  1.05551115485875155E-015  1.19428903293689612E-015
       1.00000000362749373E-015  1.02775557924312264E-015  1.11449175304196299E-015
       1.26367797197596840E-015  1.06938894266656601E-015  1.05551115485875155E-015
       1.06938894266656601E-015  1.00000000362749373E-015  1.08326673047438047E-015
       1.13877788170563829E-015  1.02775557924312264E-015  1.04510281400289071E-015
       1.01387779143530818E-015  1.05551115485875155E-015  1.06938894266656601E-015
       1.11102230609000938E-015  1.01908196186323860E-015  1.11102230609000938E-015
       1.08326673047438047E-015  1.13877788170563829E-015  1.19428903293689612E-015
       1.16653345732126721E-015  1.09367507133024131E-015  1.00000000362749373E-015
       1.02775557924312264E-015  1.00000000362749373E-015  1.01387779143530818E-015
       1.06938894266656601E-015  1.04857226095484432E-015  1.01387779143530818E-015
       1.09714451828219492E-015  1.01387779143530818E-015  1.06938894266656601E-015
       1.13877788170563829E-015  1.04206704791993130E-015  1.01387779143530818E-015
       1.02775557924312264E-015  1.00000000362749373E-015  1.00000000362749373E-015
       1.01387779143530818E-015  1.03729655836099508E-015  1.05551115485875155E-015
       1.12490009389782384E-015  1.04163336705093710E-015  1.05551115485875155E-015
       1.13877788170563829E-015  1.08326673047438047E-015  1.04163336705093710E-015
       1.02775557924312264E-015  1.04510281400289071E-015  1.05551115485875155E-015
       1.08326673047438047E-015  1.18735013903298889E-015  1.00000000362749373E-015
       1.18041124512908166E-015  1.05551115485875155E-015  1.00520417405542415E-015
       1.11102230609000938E-015  1.02775557924312264E-015  1.04163336705093710E-015
       1.19428903293689612E-015  1.02775557924312264E-015  1.05551115485875155E-015
       1.06938894266656601E-015  1.00000000362749373E-015  1.01387779143530818E-015
       1.11102230609000938E-015  1.00000000362749373E-015  1.09714451828219492E-015
       1.08326673047438047E-015  1.08326673047438047E-015  1.13877788170563829E-015
       1.02775557924312264E-015  1.00693889753140095E-015  1.00000000362749373E-015
       1.24980018416815395E-015  1.13877788170563829E-015  1.08326673047438047E-015
       1.00000000362749373E-015  1.08326673047438047E-015  1.24980018416815395E-015
       1.08326673047438047E-015  1.04163336705093710E-015  1.20122792684080335E-015
       1.02775557924312264E-015  1.22204460855252503E-015  1.09020562437828769E-015
       1.00000000362749373E-015  1.08326673047438047E-015  1.01387779143530818E-015
       1.00000000362749373E-015  1.14571677560954552E-015  1.19428903293689612E-015
       1.01387779143530818E-015  1.02775557924312264E-015  1.08326673047438047E-015
       1.19428903293689612E-015  1.05551115485875155E-015  1.13877788170563829E-015
       1.02775557924312264E-015  1.13877788170563829E-015  1.16653345732126721E-015
       1.00000000362749373E-015  1.04857226095484432E-015  1.05551115485875155E-015
       1.04163336705093710E-015  1.02081668533921541E-015  1.00000000362749373E-015
       1.02775557924312264E-015  1.06245004876265878E-015  1.04163336705093710E-015
       1.02775557924312264E-015  1.05551115485875155E-015  1.06938894266656601E-015
       1.05551115485875155E-015  1.02775557924312264E-015  1.04163336705093710E-015
       1.16653345732126721E-015  1.04163336705093710E-015  1.12490009389782384E-015
       1.05551115485875155E-015  1.08326673047438047E-015  1.23592239636033949E-015
       1.15265566951345275E-015  1.13877788170563829E-015  1.00000000362749373E-015
       1.01387779143530818E-015  1.11796119999391661E-015  1.05551115485875155E-015
       1.16653345732126721E-015  1.29143354759159732E-015  1.05551115485875155E-015
       1.13877788170563829E-015  1.11102230609000938E-015  1.11102230609000938E-015
       1.08326673047438047E-015  1.13877788170563829E-015  1.13877788170563829E-015
       1.20816682074471058E-015  1.11102230609000938E-015  1.01040834448335457E-015
       1.18041124512908166E-015  1.01387779143530818E-015  1.01387779143530818E-015
       1.29143354759159732E-015  1.04163336705093710E-015  1.02775557924312264E-015
       1.04857226095484432E-015  1.14571677560954552E-015  1.04163336705093710E-015
       1.11102230609000938E-015  1.00000000362749373E-015  1.06938894266656601E-015
       1.11102230609000938E-015  1.09714451828219492E-015  1.00000000362749373E-015
       1.29143354759159732E-015  1.11102230609000938E-015  1.01387779143530818E-015
       1.08326673047438047E-015  1.01387779143530818E-015  1.24980018416815395E-015
       1.08326673047438047E-015  1.13877788170563829E-015  1.02081668533921541E-015
       1.02775557924312264E-015  1.06591949571461240E-015  1.02775557924312264E-015
       1.01387779143530818E-015  1.02775557924312264E-015  1.01387779143530818E-015
       1.01387779143530818E-015  1.05551115485875155E-015  1.08326673047438047E-015
       1.11102230609000938E-015  1.08326673047438047E-015  1.02081668533921541E-015
       1.15265566951345275E-015  1.09714451828219492E-015  1.06245004876265878E-015
       1.19428903293689612E-015  1.03469447314702987E-015  1.04163336705093710E-015
       1.04163336705093710E-015  1.02775557924312264E-015  1.12490009389782384E-015
       1.05551115485875155E-015  1.09020562437828769E-015  1.06245004876265878E-015
       1.11102230609000938E-015  1.04163336705093710E-015  1.02081668533921541E-015
       1.00000000362749373E-015  1.05551115485875155E-015  1.16653345732126721E-015
       1.09714451828219492E-015  1.06938894266656601E-015  1.01387779143530818E-015
       1.04163336705093710E-015  1.04163336705093710E-015  1.03989864357496029E-015
       1.09714451828219492E-015  1.06938894266656601E-015  1.03686287749200088E-015
       1.02775557924312264E-015  1.01387779143530818E-015  1.01387779143530818E-015
       1.00000000362749373E-015  1.02428613229116902E-015  1.15265566951345275E-015
       1.16653345732126721E-015  1.05551115485875155E-015  1.04163336705093710E-015
       1.30531133539941177E-015  1.01387779143530818E-015  1.13877788170563829E-015
       1.08326673047438047E-015  1.08326673047438047E-015  1.19428903293689612E-015
       1.18041124512908166E-015  1.07632783657047324E-015  1.08326673047438047E-015
       1.06938894266656601E-015  1.01387779143530818E-015  1.04163336705093710E-015
       1.06938894266656601E-015  1.03469447314702987E-015  1.06938894266656601E-015
       1.04163336705093710E-015  1.02775557924312264E-015  1.02081668533921541E-015
       1.01387779143530818E-015  1.02775557924312264E-015  1.08500145395035727E-015
       1.11102230609000938E-015  1.04163336705093710E-015  1.08326673047438047E-015
       1.08326673047438047E-015  1.04857226095484432E-015  1.01387779143530818E-015
       1.05551115485875155E-015  1.02775557924312264E-015  1.03122502619507625E-015
       1.11102230609000938E-015  1.02775557924312264E-015  1.11102230609000938E-015
       1.02775557924312264E-015  1.06938894266656601E-015  1.07199102788053122E-015
       1.09714451828219492E-015  1.01387779143530818E-015  1.01387779143530818E-015
       1.05551115485875155E-015  1.05551115485875155E-015  1.03469447314702987E-015
       1.01387779143530818E-015  1.00932414231086906E-015  1.02081668533921541E-015
       1.04163336705093710E-015  1.02775557924312264E-015  1.02775557924312264E-015
       1.22204460855252503E-015  1.00000000362749373E-015  1.09714451828219492E-015
       1.12490009389782384E-015  1.04163336705093710E-015  1.09714451828219492E-015
       1.04163336705093710E-015  1.02081668533921541E-015  1.08326673047438047E-015
       1.02775557924312264E-015  1.06938894266656601E-015  1.05551115485875155E-015
       1.00000000362749373E-015  1.01387779143530818E-015  1.02775557924312264E-015
       1.06938894266656601E-015  1.13877788170563829E-015  1.00520417405542415E-015
       1.01387779143530818E-015  1.02775557924312264E-015  1.01387779143530818E-015
       1.15265566951345275E-015  1.04163336705093710E-015  1.08326673047438047E-015
       1.00000000362749373E-015  1.05551115485875155E-015  1.11102230609000938E-015
       1.04163336705093710E-015  1.00000000362749373E-015  1.03816392009898348E-015
       1.02081668533921541E-015  1.04163336705093710E-015  1.01387779143530818E-015
       1.11102230609000938E-015  1.04163336705093710E-015  1.05551115485875155E-015
       1.15265566951345275E-015  1.11102230609000938E-015  1.02775557924312264E-015
       1.01387779143530818E-015  1.02775557924312264E-015  1.00000000362749373E-015
       1.08326673047438047E-015  1.02775557924312264E-015  1.05334275051378054E-015
       1.05551115485875155E-015  1.03165870706407046E-015  1.11102230609000938E-015
       1.18041124512908166E-015  1.02471981316016323E-015  1.01387779143530818E-015
       1.11102230609000938E-015  1.05551115485875155E-015  1.04163336705093710E-015
       1.20816682074471058E-015  1.13877788170563829E-015  1.01994932360122701E-015
       1.00000000362749373E-015  1.11102230609000938E-015  1.04163336705093710E-015
       1.30531133539941177E-015  1.16653345732126721E-015  1.04857226095484432E-015
       1.01387779143530818E-015  1.00000000362749373E-015  1.20816682074471058E-015
       1.31918912320722623E-015  1.08326673047438047E-015  1.02775557924312264E-015
       1.08326673047438047E-015  1.11796119999391661E-015  1.16653345732126721E-015
       1.13877788170563829E-015  1.15959456341735998E-015  1.11102230609000938E-015
       1.06938894266656601E-015  1.04163336705093710E-015  1.00000000362749373E-015
       1.04163336705093710E-015  1.04163336705093710E-015  1.04163336705093710E-015
       1.20816682074471058E-015  1.04163336705093710E-015  1.04163336705093710E-015
       1.00000000362749373E-015  1.15959456341735998E-015  1.12490009389782384E-015
       1.11102230609000938E-015  1.05551115485875155E-015  1.02775557924312264E-015
       1.26367797197596840E-015  1.04163336705093710E-015  1.02775557924312264E-015
       1.11102230609000938E-015  1.00000000362749373E-015  1.05551115485875155E-015
       1.26367797197596840E-015  1.05551115485875155E-015  1.04163336705093710E-015
       1.04163336705093710E-015  1.08326673047438047E-015  1.16653345732126721E-015
       1.00000000362749373E-015  1.02775557924312264E-015  1.19428903293689612E-015
       1.11102230609000938E-015  1.02775557924312264E-015  1.02081668533921541E-015
       1.15265566951345275E-015  1.15265566951345275E-015  1.04163336705093710E-015
       1.09020562437828769E-015  1.08326673047438047E-015  1.01387779143530818E-015
       1.12490009389782384E-015  1.09714451828219492E-015  1.11102230609000938E-015
       1.15265566951345275E-015  1.06938894266656601E-015  1.12490009389782384E-015
       1.00000000362749373E-015  1.00000000362749373E-015  1.27755575978378286E-015
       1.16653345732126721E-015  1.05551115485875155E-015  1.03469447314702987E-015
       1.13877788170563829E-015  1.02775557924312264E-015  1.05551115485875155E-015
       1.05551115485875155E-015  1.06938894266656601E-015  1.12490009389782384E-015
       1.08326673047438047E-015  1.04857226095484432E-015  1.04163336705093710E-015
       1.01387779143530818E-015  1.01387779143530818E-015  1.09714451828219492E-015
       1.01387779143530818E-015  1.19428903293689612E-015  1.16653345732126721E-015
       1.02775557924312264E-015  1.04163336705093710E-015  1.09714451828219492E-015
       1.16653345732126721E-015  1.19428903293689612E-015  1.06938894266656601E-015
       1.16653345732126721E-015  1.04163336705093710E-015  1.13877788170563829E-015
       1.00000000362749373E-015  1.02428613229116902E-015  1.00000000362749373E-015
       1.08326673047438047E-015  1.01387779143530818E-015  1.04163336705093710E-015
       1.06245004876265878E-015  1.04163336705093710E-015  1.02775557924312264E-015
       1.08326673047438047E-015  1.20469737379275696E-015  1.06938894266656601E-015
       1.12490009389782384E-015  1.01387779143530818E-015  1.02081668533921541E-015
       1.08326673047438047E-015  1.05204170790679794E-015  1.04163336705093710E-015
       1.02775557924312264E-015  1.00000000362749373E-015  1.03816392009898348E-015
       1.00000000362749373E-015  1.02775557924312264E-015  1.05551115485875155E-015
       1.08326673047438047E-015  1.02775557924312264E-015  1.00173472710347053E-015
       1.13877788170563829E-015  1.13877788170563829E-015  1.02775557924312264E-015
       1.08326673047438047E-015  1.06938894266656601E-015  1.00000000362749373E-015
       1.16653345732126721E-015  1.01387779143530818E-015  1.11102230609000938E-015
       1.00693889753140095E-015  1.03469447314702987E-015  1.04163336705093710E-015
       1.04163336705093710E-015  1.09020562437828769E-015  1.05551115485875155E-015
       1.04163336705093710E-015  1.11449175304196299E-015  1.01387779143530818E-015
       1.03469447314702987E-015  1.05551115485875155E-015  1.05204170790679794E-015
       1.02775557924312264E-015  1.00693889753140095E-015  1.02081668533921541E-015
       1.04163336705093710E-015  1.00000000362749373E-015  1.05204170790679794E-015
       1.06938894266656601E-015  1.01387779143530818E-015  1.05551115485875155E-015
       1.07632783657047324E-015  1.07632783657047324E-015  1.02775557924312264E-015
       1.02775557924312264E-015  1.03469447314702987E-015  1.02081668533921541E-015
       1.06245004876265878E-015  1.01387779143530818E-015  1.01387779143530818E-015
       1.00000000362749373E-015  1.08326673047438047E-015  1.06245004876265878E-015
       1.00346945057944734E-015  1.03816392009898348E-015  1.05551115485875155E-015
       1.01387779143530818E-015  1.03816392009898348E-015  1.00000000362749373E-015
       1.00693889753140095E-015  1.00693889753140095E-015  1.02775557924312264E-015
       1.06591949571461240E-015  1.01387779143530818E-015  1.00346945057944734E-015
       1.08326673047438047E-015  1.02428613229116902E-015  1.03469447314702987E-015
       1.04163336705093710E-015  1.01040834448335457E-015  1.10061396523414854E-015
       1.05551115485875155E-015  1.02081668533921541E-015  1.09714451828219492E-015
       1.10408341218610215E-015  1.02775557924312264E-015  1.04857226095484432E-015
       1.10408341218610215E-015  1.02081668533921541E-015  1.00000000362749373E-015
       1.05204170790679794E-015  1.01387779143530818E-015  1.01387779143530818E-015
       1.00693889753140095E-015  1.03469447314702987E-015  1.09020562437828769E-015
       1.01387779143530818E-015  1.02775557924312264E-015  1.05377643138277475E-015
       1.09020562437828769E-015  1.05551115485875155E-015  1.04857226095484432E-015
       1.09714451828219492E-015  1.00000000362749373E-015  1.02775557924312264E-015
       1.12490009389782384E-015  1.09020562437828769E-015  1.12490009389782384E-015
       1.05551115485875155E-015  1.06245004876265878E-015  1.15959456341735998E-015
       1.06938894266656601E-015  1.02428613229116902E-015  1.04163336705093710E-015
       1.06938894266656601E-015  1.06418477223863559E-015  1.08326673047438047E-015
       1.02775557924312264E-015  1.18735013903298889E-015  1.06938894266656601E-015
       1.09020562437828769E-015  1.02081668533921541E-015  1.02775557924312264E-015
       1.03469447314702987E-015  1.00000000362749373E-015  1.05551115485875155E-015
       1.05551115485875155E-015  1.04163336705093710E-015  1.05551115485875155E-015
       1.00000000362749373E-015  1.02775557924312264E-015  1.06938894266656601E-015
       1.06938894266656601E-015  1.04163336705093710E-015  1.01387779143530818E-015
       1.00000000362749373E-015  1.02775557924312264E-015  1.02775557924312264E-015
       1.06938894266656601E-015  1.11796119999391661E-015  1.09714451828219492E-015
       1.02775557924312264E-015  1.02775557924312264E-015  1.08326673047438047E-015
       1.13877788170563829E-015  1.02081668533921541E-015  1.02775557924312264E-015
       1.01387779143530818E-015  1.04163336705093710E-015  1.01387779143530818E-015
       1.09020562437828769E-015  1.00693889753140095E-015  1.01387779143530818E-015
       1.03469447314702987E-015  1.02081668533921541E-015  1.06245004876265878E-015
       1.01387779143530818E-015  1.04163336705093710E-015  1.00346945057944734E-015
       1.02775557924312264E-015  1.01040834448335457E-015  1.05551115485875155E-015
       1.04163336705093710E-015  1.00346945057944734E-015  1.02775557924312264E-015
       1.11102230609000938E-015  1.00000000362749373E-015  1.10408341218610215E-015
       1.08326673047438047E-015  1.02775557924312264E-015  1.02775557924312264E-015
       1.13877788170563829E-015  1.02081668533921541E-015  1.06938894266656601E-015
       1.02775557924312264E-015  1.05551115485875155E-015  1.08673617742633408E-015
       1.01387779143530818E-015  1.04163336705093710E-015  1.01387779143530818E-015
       1.00000000362749373E-015  1.04163336705093710E-015  1.00346945057944734E-015
       1.05551115485875155E-015  1.02775557924312264E-015  1.05551115485875155E-015
       1.02775557924312264E-015  1.01387779143530818E-015  1.00520417405542415E-015
       1.22204460855252503E-015  1.04163336705093710E-015  1.02775557924312264E-015
       1.08326673047438047E-015  1.05551115485875155E-015  1.01387779143530818E-015
       1.05551115485875155E-015  1.02775557924312264E-015  1.00693889753140095E-015
       1.06938894266656601E-015  1.03469447314702987E-015  1.04163336705093710E-015
       1.04163336705093710E-015  1.02667137707063713E-015  1.06938894266656601E-015
       1.06938894266656601E-015  1.04163336705093710E-015  1.08326673047438047E-015
       1.02775557924312264E-015  1.04857226095484432E-015  1.04163336705093710E-015
       1.02775557924312264E-015  1.09714451828219492E-015  1.01387779143530818E-015
       1.05551115485875155E-015  1.04217546813717985E-015  1.02081668533921541E-015
       1.04857226095484432E-015  1.04163336705093710E-015  1.00693889753140095E-015
       1.02775557924312264E-015  1.03469447314702987E-015  1.01387779143530818E-015
       1.05551115485875155E-015  1.00000000362749373E-015  1.05551115485875155E-015
       1.06938894266656601E-015  1.01387779143530818E-015  1.10408341218610215E-015
       1.15265566951345275E-015  1.04163336705093710E-015  1.06331741050064718E-015
       1.11102230609000938E-015  1.06938894266656601E-015  1.11102230609000938E-015
       1.09020562437828769E-015  1.05551115485875155E-015  1.08326673047438047E-015
       1.06245004876265878E-015  1.04163336705093710E-015  1.00000000362749373E-015
       1.05551115485875155E-015  1.12490009389782384E-015  1.05551115485875155E-015
       1.04163336705093710E-015  1.05898060181070517E-015  1.06938894266656601E-015
       1.09714451828219492E-015  1.02775557924312264E-015  1.01387779143530818E-015
       1.01387779143530818E-015  1.08326673047438047E-015  1.13877788170563829E-015
       1.24980018416815395E-015  1.00000000362749373E-015  1.05551115485875155E-015
       1.11102230609000938E-015  1.00173472710347053E-015  1.06938894266656601E-015
       1.00000000362749373E-015  1.14571677560954552E-015  1.09714451828219492E-015
       1.05551115485875155E-015  1.11102230609000938E-015  1.01387779143530818E-015
       1.06938894266656601E-015  1.12143064694587022E-015  1.13877788170563829E-015
       1.01734723838726180E-015  1.05551115485875155E-015  1.05551115485875155E-015
       1.06245004876265878E-015  1.06938894266656601E-015  1.02081668533921541E-015
       1.01387779143530818E-015  1.01387779143530818E-015  1.02255140881519222E-015
       1.02081668533921541E-015  1.02081668533921541E-015  1.04163336705093710E-015
       1.01387779143530818E-015  1.07632783657047324E-015  1.04163336705093710E-015
       1.04857226095484432E-015  1.11102230609000938E-015  1.10408341218610215E-015
       1.16653345732126721E-015  1.09714451828219492E-015  1.01387779143530818E-015
       1.02775557924312264E-015  1.06938894266656601E-015  1.00000000362749373E-015
       1.03469447314702987E-015  1.00000000362749373E-015  1.06245004876265878E-015
       1.06938894266656601E-015  1.02775557924312264E-015  1.14571677560954552E-015
       1.06938894266656601E-015  1.01387779143530818E-015  1.02775557924312264E-015
       1.05551115485875155E-015  1.05551115485875155E-015  1.09128982655077320E-015
       1.06938894266656601E-015  1.04163336705093710E-015  1.02255140881519222E-015
       1.04163336705093710E-015  1.01387779143530818E-015  1.05551115485875155E-015
       1.05551115485875155E-015  1.04163336705093710E-015  1.02775557924312264E-015
       1.01387779143530818E-015  1.13877788170563829E-015  1.02775557924312264E-015
       1.00000000362749373E-015  1.05551115485875155E-015  1.05551115485875155E-015
       1.01387779143530818E-015  1.11102230609000938E-015  1.05551115485875155E-015
       1.05551115485875155E-015  1.02775557924312264E-015  1.04163336705093710E-015
       1.13877788170563829E-015  1.09714451828219492E-015  1.02775557924312264E-015
       1.20816682074471058E-015  1.02775557924312264E-015  1.11102230609000938E-015
       1.00000000362749373E-015  1.05551115485875155E-015  1.07632783657047324E-015
       1.05551115485875155E-015  1.10755285913805577E-015  1.16653345732126721E-015
       1.16653345732126721E-015  1.01387779143530818E-015  1.02775557924312264E-015
       1.02775557924312264E-015  1.05551115485875155E-015  1.06245004876265878E-015
       1.02081668533921541E-015  1.01387779143530818E-015  1.05898060181070517E-015
       1.13877788170563829E-015  1.00693889753140095E-015  1.03469447314702987E-015
       1.04163336705093710E-015  1.03469447314702987E-015  1.02775557924312264E-015
       1.01387779143530818E-015  1.05551115485875155E-015  1.05551115485875155E-015
       1.02775557924312264E-015  1.11102230609000938E-015  1.00000000362749373E-015
       1.01387779143530818E-015  1.01387779143530818E-015  1.01387779143530818E-015
       1.04163336705093710E-015  1.04857226095484432E-015  1.08326673047438047E-015
       1.05551115485875155E-015  1.06938894266656601E-015  1.01387779143530818E-015
       1.05551115485875155E-015  1.06938894266656601E-015  1.05551115485875155E-015
       1.13877788170563829E-015  1.01387779143530818E-015  1.02775557924312264E-015
       1.05551115485875155E-015  1.02081668533921541E-015  1.06938894266656601E-015
       1.08326673047438047E-015  1.08326673047438047E-015  1.16653345732126721E-015
       1.04163336705093710E-015  1.22204460855252503E-015  1.11102230609000938E-015
       1.04163336705093710E-015  1.00000000362749373E-015  1.08326673047438047E-015
       1.22204460855252503E-015  1.04163336705093710E-015  1.11102230609000938E-015
       1.01387779143530818E-015  1.01387779143530818E-015  1.01387779143530818E-015
       1.07632783657047324E-015  1.02081668533921541E-015  1.00693889753140095E-015
       1.04163336705093710E-015  1.02775557924312264E-015  1.09714451828219492E-015
       1.06938894266656601E-015  1.03469447314702987E-015  1.05551115485875155E-015
       1.08326673047438047E-015  1.08326673047438047E-015  1.08326673047438047E-015
       1.05551115485875155E-015  1.01387779143530818E-015  1.06938894266656601E-015
       1.02775557924312264E-015  1.05551115485875155E-015  1.00693889753140095E-015
       1.05551115485875155E-015  1.06938894266656601E-015  1.20816682074471058E-015
       1.09714451828219492E-015  1.01387779143530818E-015  1.02775557924312264E-015
       1.04163336705093710E-015  1.02775557924312264E-015  1.00281892927595604E-015
       1.09714451828219492E-015  1.06938894266656601E-015  1.02428613229116902E-015
       1.02081668533921541E-015  1.02081668533921541E-015  1.11102230609000938E-015
       1.01387779143530818E-015  1.04163336705093710E-015  1.03122502619507625E-015
       1.05551115485875155E-015  1.04163336705093710E-015  1.01387779143530818E-015
       1.04857226095484432E-015  1.00000000362749373E-015  1.01040834448335457E-015
       1.22204460855252503E-015  1.04163336705093710E-015  1.09714451828219492E-015
       1.00000000362749373E-015  1.08326673047438047E-015  1.07632783657047324E-015
       1.04163336705093710E-015  1.02775557924312264E-015  1.01387779143530818E-015
       1.01387779143530818E-015  1.05551115485875155E-015  1.08326673047438047E-015
       1.00000000362749373E-015  1.04163336705093710E-015  1.08326673047438047E-015
       1.09714451828219492E-015  1.00693889753140095E-015  1.06938894266656601E-015
       1.11102230609000938E-015  1.02081668533921541E-015  1.06938894266656601E-015
       1.04163336705093710E-015  1.06938894266656601E-015  1.08326673047438047E-015
       1.08326673047438047E-015  1.04857226095484432E-015  1.04163336705093710E-015
       1.08326673047438047E-015  1.12836954084977745E-015  1.12490009389782384E-015
       1.16653345732126721E-015  1.04857226095484432E-015  1.01387779143530818E-015
       1.01387779143530818E-015  1.02081668533921541E-015  1.01387779143530818E-015
       1.06938894266656601E-015  1.07632783657047324E-015  1.01387779143530818E-015
       1.00693889753140095E-015  1.00000000362749373E-015  1.02081668533921541E-015
       1.01387779143530818E-015  1.03295974967105306E-015  1.00000000362749373E-015
       1.05551115485875155E-015  1.00954098274536616E-015  1.02775557924312264E-015
       1.00693889753140095E-015  1.06938894266656601E-015  1.01040834448335457E-015
       1.01387779143530818E-015  1.00000000362749373E-015  1.00693889753140095E-015
       1.08326673047438047E-015  1.01387779143530818E-015  1.02775557924312264E-015
       1.03469447314702987E-015  1.00000000362749373E-015  1.10408341218610215E-015
       1.12490009389782384E-015  1.00000000362749373E-015  1.04510281400289071E-015
       1.04857226095484432E-015  1.02081668533921541E-015  1.08326673047438047E-015
       1.08326673047438047E-015  1.02775557924312264E-015  1.01387779143530818E-015
       1.04857226095484432E-015  1.02081668533921541E-015  1.09020562437828769E-015
       1.14571677560954552E-015  1.03469447314702987E-015  1.00693889753140095E-015
       1.00693889753140095E-015  1.02428613229116902E-015  1.06938894266656601E-015
       1.02428613229116902E-015  1.00346945057944734E-015  1.06245004876265878E-015
       1.04163336705093710E-015  1.00693889753140095E-015  1.00693889753140095E-015
       1.05898060181070517E-015  1.05204170790679794E-015  1.04163336705093710E-015
       1.02775557924312264E-015  1.02081668533921541E-015  1.06938894266656601E-015
       1.02775557924312264E-015  1.02341877055318062E-015  1.05551115485875155E-015
       1.04163336705093710E-015  1.03469447314702987E-015  1.02775557924312264E-015
       1.04857226095484432E-015  1.02515349402915743E-015  1.04163336705093710E-015
       1.00000000362749373E-015  1.00867362100737776E-015  1.05551115485875155E-015
       1.12490009389782384E-015  1.02775557924312264E-015  1.00346945057944734E-015
       1.01387779143530818E-015  1.02775557924312264E-015  1.11102230609000938E-015
       1.08326673047438047E-015  1.01387779143530818E-015  1.00000000362749373E-015
       1.07632783657047324E-015  1.02081668533921541E-015  1.05551115485875155E-015
       1.06938894266656601E-015  1.00000000362749373E-015  1.08326673047438047E-015
       1.07632783657047324E-015  1.09714451828219492E-015  1.06591949571461240E-015